version 2
run General-0-20130124-15:55:19-828
attr configname General
attr datetime 20130124-15:55:19
attr experiment General
attr inifile omnetpp.ini
attr iterationvars ""
attr iterationvars2 $repetition=0
attr measurement ""
attr network CT
attr processid 828
attr repetition 0
attr replication #0
attr resultdir results
attr runnumber 0
attr seedset 0

vector 29  CT.host[0].app  "End-to-end delay"  ETV
vector 30  CT.host[0].app  "Mean end-to-end delay"  ETV
29	565	8.234592	0.003032075148
29	660	8.962592	0.004641938687
29	783	10.921952	0.005147885304
29	892	11.731872	0.004385438075
29	1013	12.988512	0.003815777701
29	1108	12.994272	0.005345034983
29	1249	15.219872	0.003352559727
29	1358	16.792032	0.003374941996
29	1467	17.315552	0.004088813121
29	1595	18.468512	0.004049370585
29	1690	18.713952	0.003561004201
29	1813	19.543072	0.002943472133
29	1908	19.895392	0.003967473788
29	2045	20.234592	0.004320029991
29	2154	21.789792	0.003557652375
29	2277	22.494752	0.003969728869
29	2419	24.021792	0.004342142149
29	2546	25.381792	0.004388174837
29	2659	26.012832	0.004458684737
29	2772	26.553952	0.00504058096
29	2871	26.852192	0.003917251256
29	3008	28.014752	0.005437914624
29	3139	30.071712	0.004532243244
29	3296	32.898912	0.005277544271
29	3423	34.815712	0.003180390848
29	3518	34.884512	0.003657498694
29	3641	35.197472	0.00376775557
29	3736	35.687712	0.004690735578
29	3835	35.753312	0.003558731227
29	3990	39.759392	0.003027827913
29	4100	39.986912	0.004728931881
29	4237	40.798112	0.005335926801
29	4346	40.821472	0.003627681766
29	4469	41.021792	0.004066186475
29	4604	42.683552	0.003774981657
29	4739	44.474592	0.004103559274
29	4849	44.628512	0.003936447375
29	4976	45.962912	0.004903559839
29	5089	46.280672	0.004312227266
30	565	8.234592	0.003032075148
30	660	8.962592	0.003837006917
30	783	10.921952	0.004273966379
30	892	11.731872	0.004301834303
30	1013	12.988512	0.004204622983
30	1108	12.994272	0.004394691649
30	1249	15.219872	0.00424581566
30	1358	16.792032	0.004136956452
30	1467	17.315552	0.004131607193
30	1595	18.468512	0.004123383532
30	1690	18.713952	0.004072258138
30	1813	19.543072	0.003978192638
30	1908	19.895392	0.003977368111
30	2045	20.234592	0.00400184396
30	2154	21.789792	0.003972231187
30	2277	22.494752	0.003972074792
30	2419	24.021792	0.00399384346
30	2546	25.381792	0.004015750759
30	2659	26.012832	0.004039063074
30	2772	26.553952	0.004089138968
30	2871	26.852192	0.004080953839
30	3008	28.014752	0.004142633874
30	3139	30.071712	0.004159573412
30	3296	32.898912	0.004206155531
30	3423	34.815712	0.004165124944
30	3518	34.884512	0.004145600857
30	3641	35.197472	0.004131606587
30	3736	35.687712	0.00415157548
30	3835	35.753312	0.004131132575
30	3990	39.759392	0.004094355753
30	4100	39.986912	0.00411482595
30	4237	40.798112	0.004152985352
30	4346	40.821472	0.004137067061
30	4469	41.021792	0.004134982338
30	4604	42.683552	0.004124696604
30	4739	44.474592	0.004124109456
30	4849	44.628512	0.004119037508
30	4976	45.962912	0.004139682833
30	5089	46.280672	0.004144107049
