version 2
run General-0-20130124-12:02:15-7172
attr configname General
attr datetime 20130124-12:02:15
attr experiment General
attr inifile omnetpp.ini
attr iterationvars ""
attr iterationvars2 $repetition=0
attr measurement ""
attr network ClusterTree
attr processid 7172
attr repetition 0
attr replication #0
attr resultdir results
attr runnumber 0
attr seedset 0

vector 18  ClusterTree.host[1].app  "End-to-end delay"  ETV
vector 19  ClusterTree.host[1].app  "Mean end-to-end delay"  ETV
18	1183	19.666272	0.126143472133
18	1972	27.528992	2.410376839053
18	2028	27.534112	0.411303602183
18	2427	31.461152	3.297124723138
18	2483	31.466272	0.141790074122
18	3158	39.326432	3.254477156639
18	3214	39.330912	2.568813714497
18	3269	39.334752	0.312143413375
18	3880	43.258912	3.450317852068
18	3930	43.261472	2.281370258191
18	3981	43.264352	0.882865215797
18	4448	47.189791999999	2.745799066184
18	4509	47.193631999999	3.141668387542
18	4560	47.196511999999	3.076225495388
18	5115	51.122592	2.126795824608
18	5170	51.126112	1.498372642482
18	5735	55.056672	3.515427898174
18	6002	55.070112	1.480020716444
18	6061	55.075232	0.074112627193
18	6356	58.986912	3.27913905939
18	6411	58.991072	2.491591528238
18	6807	62.918432	0.091702461435
18	6863	62.922912	2.208016367496
18	7222	66.851872	3.615257334557
18	7664	70.784352	1.849697516893
18	8027	74.716832	0.571434582131
18	8692	78.647392	3.25319117289
18	8747	78.652192	2.773377400006
18	9423	82.583072	3.615406754662
18	9670	82.597152	1.338622334871
18	9726	82.600672	2.18103425307
18	10339	86.687392	0.004716628512
18	10876	90.461792	0.004598409484
18	11235	94.376991999999	0.806811689591
18	11584	98.308832	0.052958100976
18	11643	98.517472	0.003183571999
18	12156	102.250272	2.377643220288
18	12907	106.183072	0.62044498345
18	13275	110.104672	2.68071177203
18	13698	114.037152	2.515234465176
18	13753	114.040672	2.414418372126
18	14713	121.910752	3.13759169311
18	14770	121.914912	3.186741094201
18	14825	121.918752	0.419726948961
18	15120	125.833312	1.289063885417
18	15701	129.776992	0.175013288737
18	16368	133.748832	0.004878725307
18	16908	137.629471999999	3.399680333471
18	16957	137.632031999999	3.168801615249
18	17015	137.635551999999	3.558111048511
18	17371	141.561632	3.467232235177
18	17429	141.564192	1.815242829297
18	17485	141.570592	3.051656504111
18	18269	145.506591999999	3.39642410357
18	18331	145.510751999999	1.03211732881
18	18717	149.426912	2.815598268629
18	18763	149.429472	0.519201679751
18	18818	149.434272	0.009159861155
18	20282	157.293792	3.657998346969
18	20343	157.297632	1.004263136694
18	20395	157.300512	0.302303714619
18	20450	157.305312	0.022271052285
18	20904	161.223072	0.70415753207
18	20960	161.227872	0.231057557001
18	21326	165.155232	0.598377228878
18	21683	169.086752	3.547587799394
18	21739	169.089952	3.502110752692
18	21798	169.291232	0.003744306953
18	22269	173.019872	0.357629438687
18	22775	176.954912	0.236650805483
18	22831	176.960032	1.483663429602
18	23302	180.883232	1.532651532083
18	23363	180.888352	3.375030721486
18	24545	188.748831999999	3.384682612936
18	24955	192.679712	3.096308568947
18	25602	196.613152	0.251155999697
18	25657	196.616672	0.176030380823
18	26847	200.551712	1.31102851417
18	26903	200.556192	3.21614366599
18	27428	204.477472	0.128196777123
18	27928	208.408352	2.163630291533
18	28564	212.348512	3.122930834549
18	28624	212.353312	1.302656967226
18	28683	212.358112	0.747734261507
18	29521	224.137632	1.421183345508
18	30339	232.001311999999	3.585886312185
18	30905	235.933472	2.559289594703
18	31509	239.866272	1.35292379609
18	32064	243.798752	1.760657189212
18	32119	243.802272	1.211597806202
18	32828	247.731232	2.998352662248
18	33275	251.664672	1.112372632315
18	33332	251.668512	3.012849177659
18	33388	251.672672	2.977432445129
18	33448	251.676192	0.649467312942
18	33499	251.679072	0.183570374893
18	33943	255.595872	0.607465344498
18	34662	259.526432	2.075818462613
18	35344	263.458592	0.778851998682
18	35400	263.463712	0.149030164578
18	35695	267.391392	3.360466645652
18	36143	271.322911999999	2.431741803253
18	36195	271.325791999999	2.251126451847
18	36250	271.329631999999	1.294488571104
18	36694	275.260191999999	3.322493828294
18	36754	275.266271999999	1.686429762903
18	36809	275.270431999999	0.331260570032
18	37103	279.187872	2.9113981136
18	37158	279.192672	0.674551580542
18	37220	279.292192	0.004943765848
18	38656	290.984031999999	1.927009788524
18	38711	290.988191999999	0.569413656751
18	38777	291.205791999999	0.00320239989
18	39201	294.915872	2.438590767389
18	39767	298.848032	3.153430567707
18	40231	302.780832	1.681591340048
18	40291	302.786592	2.940687333874
18	40347	302.790752	2.621429308149
18	40402	302.794272	1.24023818151
18	40891	306.712352	1.922427627306
18	41186	310.644832	1.674931141335
18	41523	314.577312	3.054935327822
18	41579	314.580832	0.366584556284
18	42249	318.517152	1.21990265998
18	42311	318.520352	0.607550385397
18	42367	318.523872	0.866070336504
18	42797	322.441312	1.729739462179
18	43271	326.373152	0.564603521839
18	43805	330.307232	1.902414897436
18	44479	334.237471999999	2.048383311304
18	44538	334.387871999999	0.004512426094
18	44929	338.174432	0.710926537129
18	44985	338.179552	0.145582324818
18	45317	342.102112	0.214987020815
18	45384	342.106912	2.807065699642
18	45429	342.109472	2.030529769092
18	45488	342.173472	0.002927615026
18	45899	346.033952	2.349747746994
18	45954	346.038112	0.204296733301
18	46998	353.899232	0.350087699659
18	47054	353.904672	1.118910097168
18	48021	361.764512	0.858056689863
18	48687	365.699552	3.657727352993
18	48771	365.704032	2.107747037474
18	48827	365.709792	2.117418004432
18	49272	369.626912	2.96744767381
18	49353	369.630432	3.093927979089
18	49410	369.633952	1.570031896325
18	49465	369.638432	0.354863547019
18	49984	373.560032	1.393263990598
18	50039	373.563552	0.985471163242
18	50387	377.492511999999	1.345323517864
18	50442	377.496991999999	0.780500231335
18	50983	381.423712	3.291711086384
18	51053	381.429792	2.362528317505
18	51103	381.432352	1.094065003954
18	51155	381.435232	0.971622066188
18	51210	381.438432	0.770749564435
18	51693	385.355872	2.064387344067
18	52555	393.221792	1.684815637648
18	52610	393.226272	1.686565037853
18	53224	397.152352	2.842224313615
18	53305	397.155872	2.47283863003
18	53366	397.160672	0.756747552337
18	53417	397.163552	0.629157727524
18	53938	401.084192	1.286079624812
18	53997	401.182752	0.003721967867
18	54387	405.016992	1.202118019383
18	54443	405.021792	0.780159486753
18	55223	412.880992	1.956054292997
18	55278	412.884192	1.397580889738
18	55885	416.819872	2.011171571055
18	55967	416.824352	0.989637479412
18	56425	420.745311999999	2.935971018955
18	56790	424.677792	3.189484383896
18	57170	428.609632	1.589559059093
18	57226	428.614752	2.426540962102
18	57745	432.548192	2.196464678974
18	57804	432.553632	3.454515696418
18	57860	432.556832	3.013143884693
18	57915	432.560032	1.150245242918
18	58231	436.473632	2.923819490619
18	58288	436.478432	3.431507136287
18	58343	436.483232	2.796457411956
18	58823	440.405792	0.264203884025
18	58879	440.411552	1.478446246357
18	59294	444.338912	1.089563525033
18	59353	444.411552	0.003010452926
18	59740	448.271392	0.977625081948
18	60507	452.215392	1.075449109028
18	60558	452.218272	0.414620922576
18	60817	456.134432	2.990108040798
18	60862	456.136992	3.434520481713
18	61381	460.067232	3.419552830007
18	62496	471.864992	0.187358813101
18	63045	475.804192	0.942964389912
18	63102	475.809312	1.844889255843
18	63157	475.812512	0.133890626541
18	63615	479.728672	0.396444438838
18	65040	491.526432	2.73124779349
18	65258	491.540832	2.589943126242
18	65769	495.456992	3.37042029042
18	65824	495.461152	1.978140780361
18	66204	499.388192	1.060678765901
18	67496	507.254111999999	2.942779925119
18	68299	511.184672	3.480742182708
18	68350	511.187552	0.472580712458
18	69281	522.982431999999	3.341390124532
18	69337	522.986271999999	3.203325380639
18	69393	522.990751999999	2.631291261345
18	69448	522.995551999999	0.098700441315
18	69771	526.914272	1.205164508881
18	69912	526.921312	0.452520215841
18	69971	526.925152	2.491259690515
18	70037	527.094752	0.005272094938
18	70845	534.777632	1.654006988488
18	71982	546.574752	2.998276485014
18	72037	546.578912	0.247776612229
18	72544	550.506911999999	1.816273586139
18	73315	554.452512	1.386508553516
18	73549	558.370592	3.360435956825
18	74070	562.307871999999	2.07626564395
18	74129	562.313311999999	3.024099355554
18	74361	566.235552	2.572609856347
18	74929	570.167072	3.146620137676
18	74988	570.171872	2.979358987128
18	76055	578.031392	2.957356543837
18	76110	578.035552	2.135473796231
18	77021	585.895712	3.269722570074
18	77066	585.898272	3.136738177856
18	77466	589.828192	1.824197090303
18	77522	589.831712	1.069996282191
18	77913	593.760352	3.449959775817
18	77969	593.767072	0.895330578737
18	78448	597.825312	0.003522736442
18	79203	605.558432	2.527118267399
18	79621	609.488672	2.3644195296
18	80285	617.352992	3.472818562647
18	80699	621.286112	3.228793575346
18	80755	621.289632	3.051162261013
18	80821	621.292832	0.597865684662
18	80866	621.295392	0.151925634291
18	80925	621.470432	0.003265660789
18	82102	629.151392	2.487282215516
18	82161	629.370592	0.004015255392
18	82540	633.081632	1.380532049103
18	83078	637.013792	0.99310456702
18	83133	637.016992	0.481177226069
18	83495	640.947872	2.900372243669
18	84187	648.810272	1.598519178226
18	84244	648.813792	2.877386422846
18	84300	648.817632	1.153417739278
18	84355	648.821472	0.895245745258
18	85015	652.743072	2.659953200941
18	85850	660.607392	0.432934692378
18	86448	664.539232	3.51668760273
18	86507	664.542112	2.271974164364
18	86574	664.545952	1.881409249242
18	86625	664.548512	0.149278477741
18	86681	664.555872	1.819559059407
18	87945	676.336992	3.266387550688
18	88809	684.200032	0.778407001245
18	88864	684.203232	0.156672175924
18	89662	688.135712	0.157942157054
18	89725	688.141792	3.538492885993
18	90021	692.064032	1.225644717478
18	90637	695.996512	0.959917647989
18	91225	699.928352	2.977919599632
18	91270	699.930912	0.924966807467
18	91619	703.862112	2.693292073802
18	92046	707.793312	3.095860080437
18	92091	707.795872	1.981515413488
18	92674	711.736352	0.32302104234
18	92744	711.741792	2.962528543436
18	92789	711.744352	1.787359893776
18	93168	715.658912	3.171958738669
18	93929	719.632992	0.00463883493
18	94374	723.521312	3.186942077958
18	94429	723.524832	2.641454294926
18	95552	735.319712	2.512016078692
18	96717	747.115872	2.687537652568
18	97272	751.046752	3.404390228649
18	97572	754.978591999999	3.056264776177
18	97762	754.990431999999	0.884726403413
18	97818	754.997151999999	0.88632836762
18	98812	762.843552	2.377371062168
18	99431	766.775392	1.138354754103
18	99490	766.780512	1.373827238282
18	99982	770.707232	1.241595277568
18	100416	774.639391999999	2.236062058653
18	100475	774.643231999999	2.584622295798
18	100774	778.573472	0.193425422618
18	101243	782.503712	3.400435257956
18	101311	782.507872	2.839835950619
18	101372	782.519392	3.394310832107
18	101423	782.522272	0.345203988476
18	102320	790.372192	2.480502862341
18	102381	790.377632	2.53893316956
18	102432	790.380512	2.44007890357
18	102969	794.300832	3.123097321773
18	103425	794.324512	2.73815171148
18	103484	794.328352	1.576960774095
18	103963	798.232992	2.9712470966
18	104019	798.236192	2.20250189153
18	104074	798.239392	0.101890754521
18	104133	798.329952	0.003509833061
18	104656	802.168672	0.828863449031
18	104705	802.171232	3.513812945313
18	104760	802.175712	3.280822032592
18	104819	802.381792	0.003458300605
18	105382	806.097952	3.649344563577
18	105970	810.028832	0.160544881636
18	106026	810.034592	0.969149000455
18	106885	817.893472	2.241533484381
18	107356	821.826912	0.917177871563
18	107401	821.829472	0.335677788928
18	107929	825.757792	1.26034371929
18	107986	825.763872	2.019139941725
18	108041	825.768672	1.914404182832
18	108422	829.689632	2.014760517128
18	108481	829.694752	1.143041882072
18	109009	833.633952	0.548256662832
18	109063	833.636832	0.063892685768
18	109534	837.750112	0.003903352053
18	110019	841.486111999999	3.100542366055
18	110082	841.490591999999	2.894103845632
18	110222	841.497311999999	0.830101087218
18	110280	841.499871999999	0.633510850741
18	110336	841.504031999999	1.32478731743
18	111281	845.432992	0.878581005636
18	111663	849.352032	3.68295229107
18	111714	849.354912	1.77679337798
18	112251	853.449312	0.003647808646
18	113119	857.227232	0.370555397983
18	113181	857.231072	0.267051070782
18	113641	861.147551999999	3.353925096115
18	113700	861.330591999999	0.004092768512
18	114006	865.080672	2.689913613905
18	114061	865.084832	2.527740310579
18	114646	869.011232	3.014918602479
18	114703	869.017312	2.869230236267
18	114758	869.021152	1.276527194995
18	115698	876.876512	3.113294458396
18	115756	876.880992	3.653895745863
18	115811	876.885792	1.87975507167
18	116318	880.808032	3.026795544548
18	116768	884.739872	0.062018051862
18	117066	888.673952	0.324928573331
18	117559	892.605152	2.627129960022
18	117868	896.537952	0.091636748987
18	118433	900.468832	3.11433054047
18	118492	900.492192	0.003406222279
18	118949	904.403552	3.080106481737
18	119005	904.407392	1.836446273392
18	119377	908.332832	0.197711533765
18	120123	916.197152	3.235300158374
18	120688	920.130272	2.099052995499
18	120743	920.133472	1.507930560787
18	120802	920.304992	0.003627193471
18	121391	924.064672	3.273842664912
18	121447	924.067872	2.562606449216
18	121570	924.073952	1.67135228889
18	121626	924.079072	2.151167985062
18	121685	924.133472	0.003297524576
18	122171	927.993631999999	2.314265982577
18	122750	931.927072	3.582905597298
18	123439	935.858272	2.930346137329
18	123498	935.864032	1.528913878739
18	123905	939.790112	1.3681264131
18	124833	947.656351999999	2.960927940998
18	124884	947.659231999999	1.285220865503
18	125524	951.589792	3.326048857194
18	125580	951.595872	2.878038109758
18	126157	955.519072	2.949580358853
18	126213	955.523232	0.337272062382
18	126989	963.383072	2.127505364619
18	127495	967.316192	2.263203073945
18	128209	975.179872	3.385502009877
18	128268	975.184672	1.308987251468
18	128849	979.118752	3.375107228571
18	128916	979.125472	2.274382170258
18	128961	979.128032	0.796286212498
18	129336	983.043872	0.206928483363
18	131155	998.772512	0.785992083288
18	131212	998.778272	3.001653917481
18	131268	998.781472	2.075144681517
18	131323	998.784992	1.210056920951
18	132525	1006.713952	0.003438972212
18	133158	1014.502111999999	3.345410011873
18	134197	1022.370272	2.6214592905
18	134261	1022.375392	3.041641513659
18	134312	1022.378272	2.610383980967
18	135624	1034.162591999999	0.864328317366
18	136689	1042.026272	0.403392732589
18	136746	1042.032352	3.263234758492
18	137205	1045.960031999999	3.086382892896
18	138003	1053.824352	1.254579569158
18	138643	1057.758751999999	1.634739296191
18	138734	1057.762271999999	1.749858831941
18	138807	1057.764831999999	1.010897212455
18	138866	1057.769631999999	1.223283381086
18	140023	1065.636512	0.439564307728
18	140626	1073.484191999999	2.57876478656
18	140681	1073.487391999999	0.633218496741
18	140740	1073.687711999999	0.004193914349
18	142812	1093.144992	2.594709966421
18	142868	1093.150752	0.247236849933
18	143345	1097.076511999999	2.984010453747
18	143414	1097.079711999999	3.490914276419
18	143476	1097.084511999999	1.750406820692
18	143532	1097.091551999999	2.390538482488
18	143917	1101.010271999999	1.312199021282
18	144262	1104.941472	0.514618768796
18	144677	1108.872992	1.388663512508
18	145190	1112.805151999999	3.298177925795
18	145256	1112.809951999999	2.042876019293
18	145301	1112.812511999999	0.710304312683
18	145746	1116.738912	3.151573280855
18	145801	1116.742432	3.101882463395
18	146918	1124.601631999999	1.324894247763
18	147791	1132.473312	2.081008827443
18	147855	1132.477472	3.675833483684
18	147910	1132.482272	1.946848915699
18	148209	1136.398752	0.807717543396
18	148665	1140.333152	3.095302807396
18	148722	1140.338912	0.981541245412
18	148777	1140.342752	0.708509506844
18	149128	1144.262432	0.96426658597
18	149187	1144.270752	0.002953540599
18	149572	1148.194912	2.148160690453
18	149920	1152.128352	0.208824635084
18	149979	1152.268192	0.004898681211
18	150345	1156.059232	0.486846424836
18	150400	1156.063072	0.221535272845
18	150701	1159.992992	1.313009058708
18	150774	1160.173792	0.005225742671
18	151367	1163.923871999999	1.009118446835
18	151422	1163.927071999999	0.345824506474
18	151876	1167.893792	0.005222932521
18	151942	1168.083872	0.003421612009
18	152682	1175.720032	3.482164105726
18	152972	1179.652512	2.815480648156
18	153429	1183.584032	2.923688721934
18	153960	1187.519392	3.398804749446
18	154138	1187.532512	2.868130823538
18	154499	1191.450272	3.397820205401
18	154558	1191.638112	0.004095680106
18	154856	1195.380512	3.384640458677
18	154911	1195.385312	2.105348824969
18	155336	1199.314272	2.080067538557
18	155863	1203.246112	1.488770774574
18	156283	1207.176992	2.647274449477
18	156328	1207.179552	2.118560317641
18	156750	1211.110432	2.269453985739
18	157503	1218.978592	2.63037324287
18	157806	1218.995872	0.749092601505
18	158324	1222.915872	3.135612575947
18	158385	1222.919712	2.095717185062
18	159247	1230.771551999999	3.239188630143
18	160192	1234.703072	2.389011662702
18	160247	1234.706272	0.935651797766
18	160935	1238.634272	3.646623324422
18	161906	1250.430752	2.755817169202
18	161966	1250.435552	3.470202696379
18	162021	1250.438752	2.640096924955
18	162080	1250.584672	0.005407646995
18	162645	1254.364512	2.392445662041
18	163335	1258.295072	2.039580654093
18	163391	1258.299552	1.819449001388
18	163457	1258.303712	0.87459040453
18	163502	1258.306272	0.791212504076
18	164093	1262.227232	1.632494645684
18	164149	1262.231712	3.069522555533
18	164696	1266.159392	0.223043844135
18	165253	1270.092191999999	3.566611634831
18	165655	1274.024672	2.662198761229
18	165711	1274.029472	0.838935016749
18	166194	1277.957152	1.060325520213
18	166615	1281.888352	3.457657411285
18	166678	1281.892192	1.173086811595
18	166913	1281.904672	0.124535164767
18	167655	1289.752352	2.775390075207
18	167706	1289.755232	0.712516622618
18	168156	1293.684832	1.215490533746
18	168904	1301.549792	1.963991945822
18	169554	1305.480992	2.248343317899
18	170082	1309.413152	1.861866024457
18	170319	1313.346592	3.032678166584
18	170370	1313.349472	0.272986166034
18	170660	1317.277792	2.129628341634
18	171096	1321.209632	3.541713029812
18	171158	1321.212512	2.999684269839
18	171204	1321.215072	2.493170113626
18	171264	1321.219552	1.665166298297
18	171315	1321.222432	1.348846957007
18	171666	1325.141792	3.5354117677
18	171968	1329.073952	2.20404134052
18	172027	1329.270432	0.005446268978
18	172481	1333.006752	1.464038910919
18	172826	1336.938271999999	1.305055964193
18	173217	1340.874592	2.320490208565
18	173355	1340.880672	2.254304739103
18	173414	1340.885152	1.711630615059
18	173813	1344.804192	1.450703152566
18	173868	1344.808672	1.155496740093
18	174928	1352.677152	2.843104654687
18	174985	1352.680992	1.573899163024
18	175040	1352.684512	1.141024613262
18	175633	1356.599072	1.624148264026
18	175689	1356.601952	0.45844439969
18	175740	1356.604832	1.167322465394
18	176102	1360.533152	0.311365893867
18	176592	1364.463712	1.901174619181
18	176955	1368.605472	0.005443795101
18	177529	1376.260832	3.322345330185
18	177588	1376.344032	0.003573002119
18	177948	1380.192672	0.690534797762
18	178311	1384.124832	2.445368632658
18	179037	1388.063072	3.692752203795
18	179093	1388.066912	0.647038405482
18	179560	1391.989152	2.921495234238
18	179615	1391.993312	1.000172588594
19	1183	19.666272	0.126143472133
19	1972	27.528992	1.268260155593
19	2028	27.534112	0.982607971123
19	2427	31.461152	1.561237159126
19	2483	31.466272	1.277347742125
19	3158	39.326432	1.606869311211
19	3214	39.330912	1.744289940252
19	3269	39.334752	1.565271624392
19	3880	43.258912	1.774721205245
19	3930	43.261472	1.825386110539
19	3981	43.264352	1.739702392836
19	4448	47.189791999999	1.823543782281
19	4509	47.193631999999	1.924937982686
19	4560	47.196511999999	2.007172805022
19	5115	51.122592	2.015147672994
19	5170	51.126112	1.982849233587
19	5735	55.056672	2.073000919739
19	6002	55.070112	2.040057575112
19	6061	55.075232	1.936586788379
19	6356	58.986912	2.00371440193
19	6411	58.991072	2.026946646039
19	6807	62.918432	1.938981001285
19	6863	62.922912	1.95067819112
19	7222	66.851872	2.02003565543
19	7664	70.784352	2.013222129888
19	8027	74.716832	1.957768762667
19	8692	78.647392	2.005747370453
19	8747	78.652192	2.033162728651
19	9423	82.583072	2.087722867479
19	9670	82.597152	2.062752849726
19	9726	82.600672	2.066568378866
19	10339	86.687392	2.002135511667
19	10876	90.461792	1.941604084328
19	11235	94.376991999999	1.908227837424
19	11584	98.308832	1.855220130668
19	11643	98.517472	1.803774670705
19	12156	102.250272	1.819284631505
19	12907	106.183072	1.787736219714
19	13275	110.104672	1.810633028748
19	13698	114.037152	1.828248064658
19	13753	114.040672	1.842544901426
19	14713	121.910752	1.873379348847
19	14770	121.914912	1.903922645251
19	14825	121.918752	1.87019092488
19	15120	125.833312	1.85727699067
19	15701	129.776992	1.820706040628
19	16368	133.748832	1.782071416898
19	16908	137.629471999999	1.81577160266
19	16957	137.632031999999	1.843384460059
19	17015	137.635551999999	1.877678991828
19	17371	141.561632	1.908846702482
19	17429	141.564192	1.907046627998
19	17485	141.570592	1.928643040755
19	18269	145.506591999999	1.955824171548
19	18331	145.510751999999	1.93902950168
19	18717	149.426912	1.954682515375
19	18763	149.429472	1.929498641066
19	18818	149.434272	1.896389351757
19	20282	157.293792	1.926247131337
19	20343	157.297632	1.910880731426
19	20395	157.300512	1.884510616397
19	20450	157.305312	1.854474494395
19	20904	161.223072	1.836215494993
19	20960	161.227872	1.811134902212
19	21326	165.155232	1.792477091853
19	21683	169.086752	1.819069678331
19	21739	169.089952	1.844189694366
19	21798	169.291232	1.817124321022
19	22269	173.019872	1.795972221278
19	22775	176.954912	1.773696201052
19	22831	176.960032	1.76961123244
19	23302	180.883232	1.766320125491
19	23363	180.888352	1.788357256943
19	24545	188.748831999999	1.809929221213
19	24955	192.679712	1.827080945849
19	25602	196.613152	1.806345091295
19	25657	196.616672	1.785172172977
19	26847	200.551712	1.77909340812
19	26903	200.556192	1.797283917713
19	27428	204.477472	1.776420328456
19	27928	208.408352	1.781200698371
19	28564	212.348512	1.797563261007
19	28624	212.353312	1.791600534576
19	28683	212.358112	1.779173555135
19	29521	224.137632	1.77496190561
19	30339	232.001311999999	1.796019166151
19	30905	235.933472	1.804792389468
19	31509	239.866272	1.799657519088
19	32064	243.798752	1.799219313135
19	32119	243.802272	1.79269018528
19	32828	247.731232	1.805939223488
19	33275	251.664672	1.798400456193
19	33332	251.668512	1.811459044596
19	33388	251.672672	1.823863016942
19	33448	251.676192	1.8115009569
19	33499	251.679072	1.794543346671
19	33943	255.595872	1.782305429122
19	34662	259.526432	1.785300460076
19	35344	263.458592	1.775134314002
19	35400	263.463712	1.758873272508
19	35695	267.391392	1.774730632638
19	36143	271.322911999999	1.781171918624
19	36195	271.325791999999	1.785734583995
19	36250	271.329631999999	1.78101106464
19	36694	275.260191999999	1.795691852866
19	36754	275.266271999999	1.794661078432
19	36809	275.270431999999	1.780984438167
19	37103	279.187872	1.791451231458
19	37158	279.192672	1.781204445669
19	37220	279.292192	1.765056621307
19	38656	290.984031999999	1.76651565885
19	38711	290.988191999999	1.755827248117
19	38777	291.205791999999	1.740317293708
19	39201	294.915872	1.746442499617
19	39767	298.848032	1.75867717847
19	40231	302.780832	1.75801264538
19	40291	302.786592	1.768120976051
19	40347	302.790752	1.775352402594
19	40402	302.794272	1.770855644434
19	40891	306.712352	1.772118744291
19	41186	310.644832	1.771315540961
19	41523	314.577312	1.781837014624
19	41579	314.580832	1.770330897076
19	42249	318.517152	1.765891959681
19	42311	318.520352	1.756625227086
19	42367	318.523872	1.749557331129
19	42797	322.441312	1.749401284917
19	43271	326.373152	1.740145052393
19	43805	330.307232	1.741402958168
19	44479	334.237471999999	1.7437643455
19	44538	334.387871999999	1.730487613291
19	44929	338.174432	1.722763665744
19	44985	338.179552	1.710905159422
19	45317	342.102112	1.699741591223
19	45384	342.106912	1.707943992026
19	45429	342.109472	1.710315946269
19	45488	342.173472	1.69785325772
19	45899	346.033952	1.702577130831
19	45954	346.038112	1.691798135165
19	46998	353.899232	1.682214489197
19	47054	353.904672	1.678219422587
19	48021	361.764512	1.672443628695
19	48687	365.699552	1.686326731662
19	48771	365.704032	1.689253261563
19	48827	365.709792	1.692206121859
19	49272	369.626912	1.700940653037
19	49353	369.630432	1.710416757295
19	49410	369.633952	1.709468210938
19	49465	369.638432	1.700376904468
19	49984	373.560032	1.698329485042
19	50039	373.563552	1.693608569004
19	50387	377.492511999999	1.691317219983
19	50442	377.496991999999	1.68536416777
19	50983	381.423712	1.695794991917
19	51053	381.429792	1.700096497243
19	51103	381.432352	1.696211679979
19	51155	381.435232	1.691596459509
19	51210	381.438432	1.685768314603
19	51693	385.355872	1.688149566361
19	52555	393.221792	1.688128729306
19	52610	393.226272	1.688119016937
19	53224	397.152352	1.695243123707
19	53305	397.155872	1.700013648285
19	53366	397.160672	1.694262025749
19	53417	397.163552	1.687806848184
19	53938	401.084192	1.68538680467
19	53997	401.182752	1.675316955347
19	54387	405.016992	1.672500295014
19	54443	405.021792	1.667220171888
19	55223	412.880992	1.66891919613
19	55278	412.884192	1.667332422409
19	55885	416.819872	1.669331487226
19	55967	416.824352	1.665402620129
19	56425	420.745311999999	1.672704737364
19	56790	424.677792	1.68137204963
19	57170	428.609632	1.680850384911
19	57226	428.614752	1.685063326025
19	57745	432.548192	1.687936367334
19	57804	432.553632	1.697805525597
19	57860	432.556832	1.705112960925
19	57915	432.560032	1.702047393422
19	58231	436.473632	1.708760426923
19	58288	436.478432	1.718174343368
19	58343	436.483232	1.724034577436
19	58823	440.405792	1.716143600715
19	58879	440.411552	1.71486565795
19	59294	444.338912	1.711521796276
19	59353	444.411552	1.702433969982
19	59740	448.271392	1.69859900232
19	60507	452.215392	1.69531926604
19	60558	452.218272	1.688614039111
19	60817	456.134432	1.695392653703
19	60862	456.136992	1.704403678718
19	61381	460.067232	1.713244653725
19	62496	471.864992	1.705419598132
19	63045	475.804192	1.701529520539
19	63102	475.809312	1.702257234932
19	63157	475.812512	1.694336191455
19	63615	479.728672	1.687814122346
19	65040	491.526432	1.693031290702
19	65258	491.540832	1.69749353864
19	65769	495.456992	1.705775354243
19	65824	495.461152	1.707117055849
19	66204	499.388192	1.703948240703
19	67496	507.254111999999	1.70999132209
19	68299	511.184672	1.718587200054
19	68350	511.187552	1.712567845042
19	69281	522.982431999999	1.720398721385
19	69337	522.986271999999	1.727494064252
19	69393	522.990751999999	1.731797860429
19	69448	522.995551999999	1.724058062234
19	69771	526.914272	1.721610451134
19	69912	526.921312	1.715652281015
19	69971	526.925152	1.719276614704
19	70037	527.094752	1.711304500659
19	70845	534.777632	1.711039234399
19	71982	546.574752	1.716971203295
19	72037	546.578912	1.710231778566
19	72544	550.506911999999	1.710715987733
19	73315	554.452512	1.709242317577
19	73549	558.370592	1.716713782008
19	74070	562.307871999999	1.71833338499
19	74129	562.313311999999	1.724188837773
19	74361	566.235552	1.727976431606
19	74929	570.167072	1.734281514744
19	74988	570.171872	1.739790707099
19	76055	578.031392	1.745154433252
19	76110	578.035552	1.746866360283
19	77021	585.895712	1.7535163874
19	77066	585.898272	1.759530395185
19	77466	589.828192	1.759810337588
19	77522	589.831712	1.756837001142
19	77913	593.760352	1.764103622493
19	77969	593.767072	1.760390917177
19	78448	597.825312	1.752914882366
19	79203	605.558432	1.756195405184
19	79621	609.488672	1.7587617517
19	80285	617.352992	1.765963671074
19	80699	621.286112	1.772084298288
19	80755	621.289632	1.7774137898
19	80821	621.292832	1.772519399322
19	80866	621.295392	1.765822730871
19	80925	621.470432	1.758569409595
19	82102	629.151392	1.761555937489
19	82161	629.370592	1.754382302051
19	82540	633.081632	1.752862585576
19	83078	637.013792	1.749786642181
19	83133	637.016992	1.744671281632
19	83495	640.947872	1.749312650958
19	84187	648.810272	1.748709477067
19	84244	648.813792	1.753206197966
19	84300	648.817632	1.750826085035
19	84355	648.821472	1.747444344561
19	85015	652.743072	1.751036899114
19	85850	660.607392	1.745867870852
19	86448	664.539232	1.75278513543
19	86507	664.542112	1.754805326204
19	86574	664.545952	1.755296039084
19	86625	664.548512	1.749095199079
19	86681	664.555872	1.749366213926
19	87945	676.336992	1.755178556213
19	88809	684.200032	1.751450420507
19	88864	684.203232	1.7453866249
19	89662	688.135712	1.739373577673
19	89725	688.141792	1.746162707139
19	90021	692.064032	1.744205872591
19	90637	695.996512	1.74126846351
19	91225	699.928352	1.745882833421
19	91270	699.930912	1.742831100983
19	91619	703.862112	1.746351326808
19	92046	707.793312	1.751331063906
19	92091	707.795872	1.752177329897
19	92674	711.736352	1.746942325181
19	92744	711.741792	1.751378771233
19	92789	711.744352	1.751509611679
19	93168	715.658912	1.756656166486
19	93929	719.632992	1.75033119417
19	94374	723.521312	1.75549885922
19	94429	723.524832	1.758674326731
19	95552	735.319712	1.761364832988
19	96717	747.115872	1.76466082167
19	97272	751.046752	1.770475464957
19	97572	754.978591999999	1.775018890085
19	97762	754.990431999999	1.771884057386
19	97818	754.997151999999	1.768776844439
19	98812	762.843552	1.77090479625
19	99431	766.775392	1.768700789134
19	99490	766.780512	1.767329700416
19	99982	770.707232	1.765510550164
19	100416	774.639391999999	1.767133141572
19	100475	774.643231999999	1.769942382652
19	100774	778.573472	1.764543351967
19	101243	782.503712	1.770126600793
19	101311	782.507872	1.773765067969
19	101372	782.519392	1.779258443441
19	101423	782.522272	1.774413664877
19	102320	790.372192	1.776791069582
19	102381	790.377632	1.779348593408